New lamina simulations by Silvia BONFANTI
 
 
       16230 atoms
       44816 bonds
5796 angles
0 dihedrals
30720 impropers
 
4 atom types
       32222 bond types
1 angle types
0 dihedral types
2 improper types
 
-13.564589 13.564589 xlo xhi
-13.564589 13.564589 ylo yhi
-13.564589 13.564589 zlo zhi
 
Masses
 
1 0.01
2 0.01
3 0.01
4 0.01
 
Atoms

    1 1 -0.000000 5.244878 3.241510 1 0.100000 0.050000 
    2 1 -0.000000 5.244878 -3.241510 1 0.100000 0.050000 
    3 1 -0.000000 -5.244878 3.241510 1 0.100000 0.050000 
    4 1 -0.000000 -5.244878 -3.241510 1 0.100000 0.050000 
    5 1 5.244878 3.241510 -0.000000 1 0.100000 0.050000 
    6 1 5.244878 -3.241510 0.000000 1 0.100000 0.050000 
    7 1 -5.244878 3.241510 0.000000 1 0.100000 0.050000 
    8 1 -5.244878 -3.241510 -0.000000 1 0.100000 0.050000 
    9 1 3.241510 -0.000000 5.244878 1 0.100000 0.050000 
    10 1 -3.241510 0.000000 5.244878 1 0.100000 0.050000 
    11 1 3.241510 0.000000 -5.244878 1 0.100000 0.050000 
    12 1 -3.241510 -0.000000 -5.244878 1 0.100000 0.050000 
    13 1 0.000000 6.165722 0.000000 1 0.100000 0.050000 
    14 1 3.082859 4.988176 1.905310 1 0.100000 0.050000 
    15 1 3.082859 4.988176 -1.905310 1 0.100000 0.050000 
    16 1 -3.082859 4.988176 -1.905310 1 0.100000 0.050000 
    17 1 -3.082859 4.988176 1.905310 1 0.100000 0.050000 
    18 1 0.000000 -6.165722 0.000000 1 0.100000 0.050000 
    19 1 3.082859 -4.988176 -1.905310 1 0.100000 0.050000 
    20 1 3.082859 -4.988176 1.905310 1 0.100000 0.050000 
    21 1 -3.082859 -4.988176 1.905310 1 0.100000 0.050000 
    22 1 -3.082859 -4.988176 -1.905310 1 0.100000 0.050000 
    23 1 6.165722 0.000000 0.000000 1 0.100000 0.050000 
    24 1 4.988176 -1.905310 -3.082859 1 0.100000 0.050000 
    25 1 4.988176 1.905310 -3.082859 1 0.100000 0.050000 
    26 1 4.988176 1.905310 3.082859 1 0.100000 0.050000 
    27 1 4.988176 -1.905310 3.082859 1 0.100000 0.050000 
    28 1 -6.165722 0.000000 0.000000 1 0.100000 0.050000 
    29 1 -4.988176 -1.905310 3.082859 1 0.100000 0.050000 
    30 1 -4.988176 1.905310 3.082859 1 0.100000 0.050000 
    31 1 -4.988176 1.905310 -3.082859 1 0.100000 0.050000 
    32 1 -4.988176 -1.905310 -3.082859 1 0.100000 0.050000 
    33 1 0.000000 0.000000 6.165722 1 0.100000 0.050000 
    34 1 -1.905310 -3.082859 4.988176 1 0.100000 0.050000 
    35 1 1.905310 -3.082859 4.988176 1 0.100000 0.050000 
    36 1 1.905310 3.082859 4.988176 1 0.100000 0.050000 
    37 1 -1.905310 3.082859 4.988176 1 0.100000 0.050000 
    38 1 0.000000 0.000000 -6.165722 1 0.100000 0.050000 
    39 1 -1.905310 3.082859 -4.988176 1 0.100000 0.050000 
    40 1 1.905310 3.082859 -4.988176 1 0.100000 0.050000 
    41 1 1.905310 -3.082859 -4.988176 1 0.100000 0.050000 
    42 1 -1.905310 -3.082859 -4.988176 1 0.100000 0.050000 
    43 1 1.632269 5.863913 0.983031 1 0.100000 0.050000 
    44 1 3.222846 5.256367 0.000000 1 0.100000 0.050000 
    45 1 1.632269 5.863913 -0.983031 1 0.100000 0.050000 
    46 1 -1.632269 5.863913 -0.983031 1 0.100000 0.050000 
    47 1 -3.222846 5.256367 0.000000 1 0.100000 0.050000 
    48 1 -1.632269 5.863913 0.983031 1 0.100000 0.050000 
    49 1 1.632269 -5.863913 -0.983031 1 0.100000 0.050000 
    50 1 3.222846 -5.256367 0.000000 1 0.100000 0.050000 
    51 1 1.632269 -5.863913 0.983031 1 0.100000 0.050000 
    52 1 -1.632269 -5.863913 0.983031 1 0.100000 0.050000 
    53 1 -3.222846 -5.256367 0.000000 1 0.100000 0.050000 
    54 1 -1.632269 -5.863913 -0.983031 1 0.100000 0.050000 
    55 1 5.863913 -0.983031 -1.632269 1 0.100000 0.050000 
    56 1 5.256367 0.000000 -3.222846 1 0.100000 0.050000 
    57 1 5.863913 0.983031 -1.632269 1 0.100000 0.050000 
    58 1 5.863913 0.983031 1.632269 1 0.100000 0.050000 
    59 1 5.256367 0.000000 3.222846 1 0.100000 0.050000 
    60 1 5.863913 -0.983031 1.632269 1 0.100000 0.050000 
    61 1 -5.863913 -0.983031 1.632269 1 0.100000 0.050000 
    62 1 -5.256367 0.000000 3.222846 1 0.100000 0.050000 
    63 1 -5.863913 0.983031 1.632269 1 0.100000 0.050000 
    64 1 -5.863913 0.983031 -1.632269 1 0.100000 0.050000 
    65 1 -5.256367 0.000000 -3.222846 1 0.100000 0.050000 
    66 1 -5.863913 -0.983031 -1.632269 1 0.100000 0.050000 
    67 1 -0.983031 -1.632269 5.863913 1 0.100000 0.050000 
    68 1 0.000000 -3.222846 5.256367 1 0.100000 0.050000 
    69 1 0.983031 -1.632269 5.863913 1 0.100000 0.050000 
    70 1 0.983031 1.632269 5.863913 1 0.100000 0.050000 
    71 1 0.000000 3.222846 5.256367 1 0.100000 0.050000 
    72 1 -0.983031 1.632269 5.863913 1 0.100000 0.050000 
    73 1 -0.983031 1.632269 -5.863913 1 0.100000 0.050000 
    74 1 0.000000 3.222846 -5.256367 1 0.100000 0.050000 
    75 1 0.983031 1.632269 -5.863913 1 0.100000 0.050000 
    76 1 0.983031 -1.632269 -5.863913 1 0.100000 0.050000 
    77 1 0.000000 -3.222846 -5.256367 1 0.100000 0.050000 
    78 1 -0.983031 -1.632269 -5.863913 1 0.100000 0.050000 
    79 1 3.624098 2.641067 4.231644 1 0.100000 0.050000 
    80 1 4.231644 3.624098 2.641067 1 0.100000 0.050000 
    81 1 2.641067 4.231644 3.624098 1 0.100000 0.050000 
    82 1 -4.231644 3.624098 2.641067 1 0.100000 0.050000 
    83 1 -3.624098 2.641067 4.231644 1 0.100000 0.050000 
    84 1 -2.641067 4.231644 3.624098 1 0.100000 0.050000 
    85 1 4.231644 3.624098 -2.641067 1 0.100000 0.050000 
    86 1 3.624098 2.641067 -4.231644 1 0.100000 0.050000 
    87 1 2.641067 4.231644 -3.624098 1 0.100000 0.050000 
    88 1 -3.624098 2.641067 -4.231644 1 0.100000 0.050000 
    89 1 -4.231644 3.624098 -2.641067 1 0.100000 0.050000 
    90 1 -2.641067 4.231644 -3.624098 1 0.100000 0.050000 
    91 1 4.231644 -3.624098 2.641067 1 0.100000 0.050000 
    92 1 3.624098 -2.641067 4.231644 1 0.100000 0.050000 
    93 1 2.641067 -4.231644 3.624098 1 0.100000 0.050000 
    94 1 -3.624098 -2.641067 4.231644 1 0.100000 0.050000 
    95 1 -4.231644 -3.624098 2.641067 1 0.100000 0.050000 
    96 1 -2.641067 -4.231644 3.624098 1 0.100000 0.050000 
    97 1 3.624098 -2.641067 -4.231644 1 0.100000 0.050000 
    98 1 4.231644 -3.624098 -2.641067 1 0.100000 0.050000 
    99 1 2.641067 -4.231644 -3.624098 1 0.100000 0.050000 
    100 1 -4.231644 -3.624098 -2.641067 1 0.100000 0.050000 
    101 1 -3.624098 -2.641067 -4.231644 1 0.100000 0.050000 
    102 1 -2.641067 -4.231644 -3.624098 1 0.100000 0.050000 
    103 1 0.000000 5.920433 -1.721803 1 0.100000 0.050000 
    104 1 1.567247 5.321797 -2.690417 1 0.100000 0.050000 
    105 1 0.000000 5.920433 1.721803 1 0.100000 0.050000 
    106 1 1.567247 5.321797 2.690417 1 0.100000 0.050000 
    107 1 4.353184 4.257664 0.968614 1 0.100000 0.050000 
    108 1 4.353184 4.257664 -0.968614 1 0.100000 0.050000 
    109 1 -1.567247 5.321797 2.690417 1 0.100000 0.050000 
    110 1 -1.567247 5.321797 -2.690417 1 0.100000 0.050000 
    111 1 -4.353184 4.257664 -0.968614 1 0.100000 0.050000 
    112 1 -4.353184 4.257664 0.968614 1 0.100000 0.050000 
    113 1 0.000000 -5.920433 1.721803 1 0.100000 0.050000 
    114 1 1.567247 -5.321797 2.690417 1 0.100000 0.050000 
    115 1 0.000000 -5.920433 -1.721803 1 0.100000 0.050000 
    116 1 1.567247 -5.321797 -2.690417 1 0.100000 0.050000 
    117 1 4.353184 -4.257664 -0.968614 1 0.100000 0.050000 
    118 1 4.353184 -4.257664 0.968614 1 0.100000 0.050000 
    119 1 -1.567247 -5.321797 -2.690417 1 0.100000 0.050000 
    120 1 -1.567247 -5.321797 2.690417 1 0.100000 0.050000 
    121 1 -4.353184 -4.257664 0.968614 1 0.100000 0.050000 
    122 1 -4.353184 -4.257664 -0.968614 1 0.100000 0.050000 
    123 1 5.920433 1.721803 0.000000 1 0.100000 0.050000 
    124 1 5.321797 2.690417 -1.567247 1 0.100000 0.050000 
    125 1 5.920433 -1.721803 0.000000 1 0.100000 0.050000 
    126 1 5.321797 -2.690417 -1.567247 1 0.100000 0.050000 
    127 1 4.257664 -0.968614 -4.353184 1 0.100000 0.050000 
    128 1 4.257664 0.968614 -4.353184 1 0.100000 0.050000 
    129 1 5.321797 -2.690417 1.567247 1 0.100000 0.050000 
    130 1 5.321797 2.690417 1.567247 1 0.100000 0.050000 
    131 1 4.257664 0.968614 4.353184 1 0.100000 0.050000 
    132 1 4.257664 -0.968614 4.353184 1 0.100000 0.050000 
    133 1 -5.920433 1.721803 0.000000 1 0.100000 0.050000 
    134 1 -5.321797 2.690417 1.567247 1 0.100000 0.050000 
    135 1 -5.920433 -1.721803 0.000000 1 0.100000 0.050000 
    136 1 -5.321797 -2.690417 1.567247 1 0.100000 0.050000 
    137 1 -4.257664 -0.968614 4.353184 1 0.100000 0.050000 
    138 1 -4.257664 0.968614 4.353184 1 0.100000 0.050000 
    139 1 -5.321797 -2.690417 -1.567247 1 0.100000 0.050000 
    140 1 -5.321797 2.690417 -1.567247 1 0.100000 0.050000 
    141 1 -4.257664 0.968614 -4.353184 1 0.100000 0.050000 
    142 1 -4.257664 -0.968614 -4.353184 1 0.100000 0.050000 
    143 1 1.721803 0.000000 5.920433 1 0.100000 0.050000 
    144 1 2.690417 -1.567247 5.321797 1 0.100000 0.050000 
    145 1 -1.721803 0.000000 5.920433 1 0.100000 0.050000 
    146 1 -2.690417 -1.567247 5.321797 1 0.100000 0.050000 
    147 1 -0.968614 -4.353184 4.257664 1 0.100000 0.050000 
    148 1 0.968614 -4.353184 4.257664 1 0.100000 0.050000 
    149 1 -2.690417 1.567247 5.321797 1 0.100000 0.050000 
    150 1 2.690417 1.567247 5.321797 1 0.100000 0.050000 
    151 1 0.968614 4.353184 4.257664 1 0.100000 0.050000 
    152 1 -0.968614 4.353184 4.257664 1 0.100000 0.050000 
    153 1 1.721803 0.000000 -5.920433 1 0.100000 0.050000 
    154 1 2.690417 1.567247 -5.321797 1 0.100000 0.050000 
    155 1 -1.721803 0.000000 -5.920433 1 0.100000 0.050000 
    156 1 -2.690417 1.567247 -5.321797 1 0.100000 0.050000 
    157 1 -0.968614 4.353184 -4.257664 1 0.100000 0.050000 
    158 1 0.968614 4.353184 -4.257664 1 0.100000 0.050000 
    159 1 -2.690417 -1.567247 -5.321797 1 0.100000 0.050000 
    160 1 2.690417 -1.567247 -5.321797 1 0.100000 0.050000 
    161 1 0.968614 -4.353184 -4.257664 1 0.100000 0.050000 
    162 1 -0.968614 -4.353184 -4.257664 1 0.100000 0.050000 
    163 1 2.460903 5.631023 0.501667 1 0.100000 0.050000 
    164 1 2.460903 5.631023 -0.501667 1 0.100000 0.050000 
    165 1 1.649190 5.941069 0.000000 1 0.100000 0.050000 
    166 1 -2.460903 5.631023 -0.501667 1 0.100000 0.050000 
    167 1 -2.460903 5.631023 0.501667 1 0.100000 0.050000 
    168 1 -1.649190 5.941069 0.000000 1 0.100000 0.050000 
    169 1 2.460903 -5.631023 -0.501667 1 0.100000 0.050000 
    170 1 2.460903 -5.631023 0.501667 1 0.100000 0.050000 
    171 1 1.649190 -5.941069 0.000000 1 0.100000 0.050000 
    172 1 -2.460903 -5.631023 0.501667 1 0.100000 0.050000 
    173 1 -2.460903 -5.631023 -0.501667 1 0.100000 0.050000 
    174 1 -1.649190 -5.941069 0.000000 1 0.100000 0.050000 
    175 1 5.631023 -0.501667 -2.460903 1 0.100000 0.050000 
    176 1 5.631023 0.501667 -2.460903 1 0.100000 0.050000 
    177 1 5.941069 0.000000 -1.649190 1 0.100000 0.050000 
    178 1 5.631023 0.501667 2.460903 1 0.100000 0.050000 
    179 1 5.631023 -0.501667 2.460903 1 0.100000 0.050000 
    180 1 5.941069 0.000000 1.649190 1 0.100000 0.050000 
    181 1 -5.631023 -0.501667 2.460903 1 0.100000 0.050000 
    182 1 -5.631023 0.501667 2.460903 1 0.100000 0.050000 
    183 1 -5.941069 0.000000 1.649190 1 0.100000 0.050000 
    184 1 -5.631023 0.501667 -2.460903 1 0.100000 0.050000 
    185 1 -5.631023 -0.501667 -2.460903 1 0.100000 0.050000 
    186 1 -5.941069 0.000000 -1.649190 1 0.100000 0.050000 
    187 1 -0.501667 -2.460903 5.631023 1 0.100000 0.050000 
    188 1 0.501667 -2.460903 5.631023 1 0.100000 0.050000 
    189 1 0.000000 -1.649190 5.941069 1 0.100000 0.050000 
    190 1 0.501667 2.460903 5.631023 1 0.100000 0.050000 
    191 1 -0.501667 2.460903 5.631023 1 0.100000 0.050000 
    192 1 0.000000 1.649190 5.941069 1 0.100000 0.050000 
    193 1 -0.501667 2.460903 -5.631023 1 0.100000 0.050000 
    194 1 0.501667 2.460903 -5.631023 1 0.100000 0.050000 
    195 1 0.000000 1.649190 -5.941069 1 0.100000 0.050000 
    196 1 0.501667 -2.460903 -5.631023 1 0.100000 0.050000 
    197 1 -0.501667 -2.460903 -5.631023 1 0.100000 0.050000 
    198 1 0.000000 -1.649190 -5.941069 1 0.100000 0.050000 
    199 1 3.981829 3.170116 3.480163 1 0.100000 0.050000 
    200 1 3.480163 3.981829 3.170116 1 0.100000 0.050000 
    201 1 3.170116 3.480163 3.981829 1 0.100000 0.050000 
    202 1 -3.981829 3.170116 3.480163 1 0.100000 0.050000 
    203 1 -3.170116 3.480163 3.981829 1 0.100000 0.050000 
    204 1 -3.480163 3.981829 3.170116 1 0.100000 0.050000 
    205 1 3.981829 3.170116 -3.480163 1 0.100000 0.050000 
    206 1 3.170116 3.480163 -3.981829 1 0.100000 0.050000 
    207 1 3.480163 3.981829 -3.170116 1 0.100000 0.050000 
    208 1 -3.981829 3.170116 -3.480163 1 0.100000 0.050000 
    209 1 -3.480163 3.981829 -3.170116 1 0.100000 0.050000 
    210 1 -3.170116 3.480163 -3.981829 1 0.100000 0.050000 
    211 1 3.981829 -3.170116 3.480163 1 0.100000 0.050000 
    212 1 3.170116 -3.480163 3.981829 1 0.100000 0.050000 
    213 1 3.480163 -3.981829 3.170116 1 0.100000 0.050000 
    214 1 -3.981829 -3.170116 3.480163 1 0.100000 0.050000 
    215 1 -3.480163 -3.981829 3.170116 1 0.100000 0.050000 
    216 1 -3.170116 -3.480163 3.981829 1 0.100000 0.050000 
    217 1 3.981829 -3.170116 -3.480163 1 0.100000 0.050000 
    218 1 3.480163 -3.981829 -3.170116 1 0.100000 0.050000 
    219 1 3.170116 -3.480163 -3.981829 1 0.100000 0.050000 
    220 1 -3.981829 -3.170116 -3.480163 1 0.100000 0.050000 
    221 1 -3.170116 -3.480163 -3.981829 1 0.100000 0.050000 
    222 1 -3.480163 -3.981829 -3.170116 1 0.100000 0.050000 
    223 1 0.820566 5.957234 -1.361678 1 0.100000 0.050000 
    224 1 1.623425 5.650568 -1.857876 1 0.100000 0.050000 
    225 1 0.815024 5.700283 -2.204231 1 0.100000 0.050000 
    226 1 0.815024 5.700283 2.204231 1 0.100000 0.050000 
    227 1 1.623425 5.650568 1.857876 1 0.100000 0.050000 
    228 1 0.820566 5.957234 1.361678 1 0.100000 0.050000 
    229 1 3.826673 4.809001 0.496196 1 0.100000 0.050000 
    230 1 4.381546 4.337994 -0.000000 1 0.100000 0.050000 
    231 1 3.826673 4.809001 -0.496196 1 0.100000 0.050000 
    232 1 -0.820566 5.957234 1.361678 1 0.100000 0.050000 
    233 1 -1.623425 5.650568 1.857876 1 0.100000 0.050000 
    234 1 -0.815024 5.700283 2.204231 1 0.100000 0.050000 
    235 1 -0.815024 5.700283 -2.204231 1 0.100000 0.050000 
    236 1 -1.623425 5.650568 -1.857876 1 0.100000 0.050000 
    237 1 -0.820566 5.957234 -1.361678 1 0.100000 0.050000 
    238 1 -3.826673 4.809001 -0.496196 1 0.100000 0.050000 
    239 1 -4.381546 4.337994 0.000000 1 0.100000 0.050000 
    240 1 -3.826673 4.809001 0.496196 1 0.100000 0.050000 
    241 1 0.820566 -5.957234 1.361678 1 0.100000 0.050000 
    242 1 1.623425 -5.650568 1.857876 1 0.100000 0.050000 
    243 1 0.815024 -5.700283 2.204231 1 0.100000 0.050000 
    244 1 0.815024 -5.700283 -2.204231 1 0.100000 0.050000 
    245 1 1.623425 -5.650568 -1.857876 1 0.100000 0.050000 
    246 1 0.820566 -5.957234 -1.361678 1 0.100000 0.050000 
    247 1 3.826673 -4.809001 -0.496196 1 0.100000 0.050000 
    248 1 4.381546 -4.337994 0.000000 1 0.100000 0.050000 
    249 1 3.826673 -4.809001 0.496196 1 0.100000 0.050000 
    250 1 -0.820566 -5.957234 -1.361678 1 0.100000 0.050000 
    251 1 -1.623425 -5.650568 -1.857876 1 0.100000 0.050000 
    252 1 -0.815024 -5.700283 -2.204231 1 0.100000 0.050000 
    253 1 -0.815024 -5.700283 2.204231 1 0.100000 0.050000 
    254 1 -1.623425 -5.650568 1.857876 1 0.100000 0.050000 
    255 1 -0.820566 -5.957234 1.361678 1 0.100000 0.050000 
    256 1 -3.826673 -4.809001 0.496196 1 0.100000 0.050000 
    257 1 -4.381546 -4.337994 -0.000000 1 0.100000 0.050000 
    258 1 -3.826673 -4.809001 -0.496196 1 0.100000 0.050000 
    259 1 5.957234 1.361678 -0.820566 1 0.100000 0.050000 
    260 1 5.650568 1.857876 -1.623425 1 0.100000 0.050000 
    261 1 5.700283 2.204231 -0.815024 1 0.100000 0.050000 
    262 1 5.700283 -2.204231 -0.815024 1 0.100000 0.050000 
    263 1 5.650568 -1.857876 -1.623425 1 0.100000 0.050000 
    264 1 5.957234 -1.361678 -0.820566 1 0.100000 0.050000 
    265 1 4.809001 -0.496196 -3.826673 1 0.100000 0.050000 
    266 1 4.337994 0.000000 -4.381546 1 0.100000 0.050000 
    267 1 4.809001 0.496196 -3.826673 1 0.100000 0.050000 
    268 1 5.957234 -1.361678 0.820566 1 0.100000 0.050000 
    269 1 5.650568 -1.857876 1.623425 1 0.100000 0.050000 
    270 1 5.700283 -2.204231 0.815024 1 0.100000 0.050000 
    271 1 5.700283 2.204231 0.815024 1 0.100000 0.050000 
    272 1 5.650568 1.857876 1.623425 1 0.100000 0.050000 
    273 1 5.957234 1.361678 0.820566 1 0.100000 0.050000 
    274 1 4.809001 0.496196 3.826673 1 0.100000 0.050000 
    275 1 4.337994 -0.000000 4.381546 1 0.100000 0.050000 
    276 1 4.809001 -0.496196 3.826673 1 0.100000 0.050000 
    277 1 -5.957234 1.361678 0.820566 1 0.100000 0.050000 
    278 1 -5.650568 1.857876 1.623425 1 0.100000 0.050000 
    279 1 -5.700283 2.204231 0.815024 1 0.100000 0.050000 
    280 1 -5.700283 -2.204231 0.815024 1 0.100000 0.050000 
    281 1 -5.650568 -1.857876 1.623425 1 0.100000 0.050000 
    282 1 -5.957234 -1.361678 0.820566 1 0.100000 0.050000 
    283 1 -4.809001 -0.496196 3.826673 1 0.100000 0.050000 
    284 1 -4.337994 0.000000 4.381546 1 0.100000 0.050000 
    285 1 -4.809001 0.496196 3.826673 1 0.100000 0.050000 
    286 1 -5.957234 -1.361678 -0.820566 1 0.100000 0.050000 
    287 1 -5.650568 -1.857876 -1.623425 1 0.100000 0.050000 
    288 1 -5.700283 -2.204231 -0.815024 1 0.100000 0.050000 
    289 1 -5.700283 2.204231 -0.815024 1 0.100000 0.050000 
    290 1 -5.650568 1.857876 -1.623425 1 0.100000 0.050000 
    291 1 -5.957234 1.361678 -0.820566 1 0.100000 0.050000 
    292 1 -4.809001 0.496196 -3.826673 1 0.100000 0.050000 
    293 1 -4.337994 -0.000000 -4.381546 1 0.100000 0.050000 
    294 1 -4.809001 -0.496196 -3.826673 1 0.100000 0.050000 
    295 1 1.361678 -0.820566 5.957234 1 0.100000 0.050000 
    296 1 1.857876 -1.623425 5.650568 1 0.100000 0.050000 
    297 1 2.204231 -0.815024 5.700283 1 0.100000 0.050000 
    298 1 -2.204231 -0.815024 5.700283 1 0.100000 0.050000 
    299 1 -1.857876 -1.623425 5.650568 1 0.100000 0.050000 
    300 1 -1.361678 -0.820566 5.957234 1 0.100000 0.050000 
    301 1 -0.496196 -3.826673 4.809001 1 0.100000 0.050000 
    302 1 0.000000 -4.381546 4.337994 1 0.100000 0.050000 
    303 1 0.496196 -3.826673 4.809001 1 0.100000 0.050000 
    304 1 -1.361678 0.820566 5.957234 1 0.100000 0.050000 
    305 1 -1.857876 1.623425 5.650568 1 0.100000 0.050000 
    306 1 -2.204231 0.815024 5.700283 1 0.100000 0.050000 
    307 1 2.204231 0.815024 5.700283 1 0.100000 0.050000 
    308 1 1.857876 1.623425 5.650568 1 0.100000 0.050000 
    309 1 1.361678 0.820566 5.957234 1 0.100000 0.050000 
    310 1 0.496196 3.826673 4.809001 1 0.100000 0.050000 
    311 1 -0.000000 4.381546 4.337994 1 0.100000 0.050000 
    312 1 -0.496196 3.826673 4.809001 1 0.100000 0.050000 
    313 1 1.361678 0.820566 -5.957234 1 0.100000 0.050000 
    314 1 1.857876 1.623425 -5.650568 1 0.100000 0.050000 
    315 1 2.204231 0.815024 -5.700283 1 0.100000 0.050000 
    316 1 -2.204231 0.815024 -5.700283 1 0.100000 0.050000 
    317 1 -1.857876 1.623425 -5.650568 1 0.100000 0.050000 
    318 1 -1.361678 0.820566 -5.957234 1 0.100000 0.050000 
    319 1 -0.496196 3.826673 -4.809001 1 0.100000 0.050000 
    320 1 0.000000 4.381546 -4.337994 1 0.100000 0.050000 
    321 1 0.496196 3.826673 -4.809001 1 0.100000 0.050000 
    322 1 -1.361678 -0.820566 -5.957234 1 0.100000 0.050000 
    323 1 -1.857876 -1.623425 -5.650568 1 0.100000 0.050000 
    324 1 -2.204231 -0.815024 -5.700283 1 0.100000 0.050000 
    325 1 2.204231 -0.815024 -5.700283 1 0.100000 0.050000 
    326 1 1.857876 -1.623425 -5.650568 1 0.100000 0.050000 
    327 1 1.361678 -0.820566 -5.957234 1 0.100000 0.050000 
    328 1 0.496196 -3.826673 -4.809001 1 0.100000 0.050000 
    329 1 -0.000000 -4.381546 -4.337994 1 0.100000 0.050000 
    330 1 -0.496196 -3.826673 -4.809001 1 0.100000 0.050000 
    331 1 1.823893 4.333810 3.988437 1 0.100000 0.050000 
    332 1 2.130560 4.830005 3.185576 1 0.100000 0.050000 
    333 1 1.318738 4.885259 3.522969 1 0.100000 0.050000 
    334 1 3.522969 1.318738 4.885259 1 0.100000 0.050000 
    335 1 3.988437 1.823893 4.333810 1 0.100000 0.050000 
    336 1 3.185576 2.130560 4.830005 1 0.100000 0.050000 
    337 1 4.830005 3.185576 2.130560 1 0.100000 0.050000 
    338 1 4.885259 3.522969 1.318738 1 0.100000 0.050000 
    339 1 4.333810 3.988437 1.823893 1 0.100000 0.050000 
    340 1 -2.130560 4.830005 3.185576 1 0.100000 0.050000 
    341 1 -1.823893 4.333810 3.988437 1 0.100000 0.050000 
    342 1 -1.318738 4.885259 3.522969 1 0.100000 0.050000 
    343 1 -4.885259 3.522969 1.318738 1 0.100000 0.050000 
    344 1 -4.830005 3.185576 2.130560 1 0.100000 0.050000 
    345 1 -4.333810 3.988437 1.823893 1 0.100000 0.050000 
    346 1 -3.988437 1.823893 4.333810 1 0.100000 0.050000 
    347 1 -3.522969 1.318738 4.885259 1 0.100000 0.050000 
    348 1 -3.185576 2.130560 4.830005 1 0.100000 0.050000 
    349 1 2.130560 4.830005 -3.185576 1 0.100000 0.050000 
    350 1 1.823893 4.333810 -3.988437 1 0.100000 0.050000 
    351 1 1.318738 4.885259 -3.522969 1 0.100000 0.050000 
    352 1 4.885259 3.522969 -1.318738 1 0.100000 0.050000 
    353 1 4.830005 3.185576 -2.130560 1 0.100000 0.050000 
    354 1 4.333810 3.988437 -1.823893 1 0.100000 0.050000 
    355 1 3.988437 1.823893 -4.333810 1 0.100000 0.050000 
    356 1 3.522969 1.318738 -4.885259 1 0.100000 0.050000 
    357 1 3.185576 2.130560 -4.830005 1 0.100000 0.050000 
    358 1 -1.823893 4.333810 -3.988437 1 0.100000 0.050000 
    359 1 -2.130560 4.830005 -3.185576 1 0.100000 0.050000 
    360 1 -1.318738 4.885259 -3.522969 1 0.100000 0.050000 
    361 1 -3.522969 1.318738 -4.885259 1 0.100000 0.050000 
    362 1 -3.988437 1.823893 -4.333810 1 0.100000 0.050000 
    363 1 -3.185576 2.130560 -4.830005 1 0.100000 0.050000 
    364 1 -4.830005 3.185576 -2.130560 1 0.100000 0.050000 
    365 1 -4.885259 3.522969 -1.318738 1 0.100000 0.050000 
    366 1 -4.333810 3.988437 -1.823893 1 0.100000 0.050000 
    367 1 2.130560 -4.830005 3.185576 1 0.100000 0.050000 
    368 1 1.823893 -4.333810 3.988437 1 0.100000 0.050000 
    369 1 1.318738 -4.885259 3.522969 1 0.100000 0.050000 
    370 1 4.885259 -3.522969 1.318738 1 0.100000 0.050000 
    371 1 4.830005 -3.185576 2.130560 1 0.100000 0.050000 
    372 1 4.333810 -3.988437 1.823893 1 0.100000 0.050000 
    373 1 3.988437 -1.823893 4.333810 1 0.100000 0.050000 
    374 1 3.522969 -1.318738 4.885259 1 0.100000 0.050000 
    375 1 3.185576 -2.130560 4.830005 1 0.100000 0.050000 
    376 1 -1.823893 -4.333810 3.988437 1 0.100000 0.050000 
    377 1 -2.130560 -4.830005 3.185576 1 0.100000 0.050000 
    378 1 -1.318738 -4.885259 3.522969 1 0.100000 0.050000 
    379 1 -3.522969 -1.318738 4.885259 1 0.100000 0.050000 
    380 1 -3.988437 -1.823893 4.333810 1 0.100000 0.050000 
    381 1 -3.185576 -2.130560 4.830005 1 0.100000 0.050000 
    382 1 -4.830005 -3.185576 2.130560 1 0.100000 0.050000 
    383 1 -4.885259 -3.522969 1.318738 1 0.100000 0.050000 
    384 1 -4.333810 -3.988437 1.823893 1 0.100000 0.050000 
    385 1 1.823893 -4.333810 -3.988437 1 0.100000 0.050000 
    386 1 2.130560 -4.830005 -3.185576 1 0.100000 0.050000 
    387 1 1.318738 -4.885259 -3.522969 1 0.100000 0.050000 
    388 1 3.522969 -1.318738 -4.885259 1 0.100000 0.050000 
    389 1 3.988437 -1.823893 -4.333810 1 0.100000 0.050000 
    390 1 3.185576 -2.130560 -4.830005 1 0.100000 0.050000 
    391 1 4.830005 -3.185576 -2.130560 1 0.100000 0.050000 
    392 1 4.885259 -3.522969 -1.318738 1 0.100000 0.050000 
    393 1 4.333810 -3.988437 -1.823893 1 0.100000 0.050000 
    394 1 -2.130560 -4.830005 -3.185576 1 0.100000 0.050000 
    395 1 -1.823893 -4.333810 -3.988437 1 0.100000 0.050000 
    396 1 -1.318738 -4.885259 -3.522969 1 0.100000 0.050000 
    397 1 -4.885259 -3.522969 -1.318738 1 0.100000 0.050000 
    398 1 -4.830005 -3.185576 -2.130560 1 0.100000 0.050000 
    399 1 -4.333810 -3.988437 -1.823893 1 0.100000 0.050000 
    400 1 -3.988437 -1.823893 -4.333810 1 0.100000 0.050000 
    401 1 -3.522969 -1.318738 -4.885259 1 0.100000 0.050000 
    402 1 -3.185576 -2.130560 -4.830005 1 0.100000 0.050000 
    403 1 0.823446 6.091355 0.483180 1 0.100000 0.050000 
    404 1 0.823446 6.091355 -0.483181 1 0.100000 0.050000 
    405 1 2.400320 5.489042 1.457741 1 0.100000 0.050000 
    406 1 3.182120 5.190421 0.974564 1 0.100000 0.050000 
    407 1 3.182120 5.190421 -0.974564 1 0.100000 0.050000 
    408 1 2.400320 5.489042 -1.457741 1 0.100000 0.050000 
    409 1 -0.823446 6.091355 -0.483180 1 0.100000 0.050000 
    410 1 -0.823446 6.091355 0.483181 1 0.100000 0.050000 
    411 1 -2.400320 5.489042 -1.457741 1 0.100000 0.050000 
    412 1 -3.182120 5.190421 -0.974564 1 0.100000 0.050000 
    413 1 -3.182120 5.190421 0.974564 1 0.100000 0.050000 
    414 1 -2.400320 5.489042 1.457741 1 0.100000 0.050000 
    415 1 0.823446 -6.091355 -0.483180 1 0.100000 0.050000 
    416 1 0.823446 -6.091355 0.483181 1 0.100000 0.050000 
    417 1 2.400320 -5.489042 -1.457741 1 0.100000 0.050000 
    418 1 3.182120 -5.190421 -0.974564 1 0.100000 0.050000 
    419 1 3.182120 -5.190421 0.974564 1 0.100000 0.050000 
    420 1 2.400320 -5.489042 1.457741 1 0.100000 0.050000 
    421 1 -0.823446 -6.091355 0.483180 1 0.100000 0.050000 
    422 1 -0.823446 -6.091355 -0.483181 1 0.100000 0.050000 
    423 1 -2.400320 -5.489042 1.457741 1 0.100000 0.050000 
    424 1 -3.182120 -5.190421 0.974564 1 0.100000 0.050000 
    425 1 -3.182120 -5.190421 -0.974564 1 0.100000 0.050000 
    426 1 -2.400320 -5.489042 -1.457741 1 0.100000 0.050000 
    427 1 6.091355 -0.483180 -0.823446 1 0.100000 0.050000 
    428 1 6.091355 0.483181 -0.823446 1 0.100000 0.050000 
    429 1 5.489042 -1.457741 -2.400320 1 0.100000 0.050000 
    430 1 5.190421 -0.974564 -3.182120 1 0.100000 0.050000 
    431 1 5.190421 0.974564 -3.182120 1 0.100000 0.050000 
    432 1 5.489042 1.457741 -2.400320 1 0.100000 0.050000 
    433 1 6.091355 0.483180 0.823446 1 0.100000 0.050000 
    434 1 6.091355 -0.483181 0.823446 1 0.100000 0.050000 
    435 1 5.489042 1.457741 2.400320 1 0.100000 0.050000 
    436 1 5.190421 0.974564 3.182120 1 0.100000 0.050000 
    437 1 5.190421 -0.974564 3.182120 1 0.100000 0.050000 
    438 1 5.489042 -1.457741 2.400320 1 0.100000 0.050000 
    439 1 -6.091355 -0.483180 0.823446 1 0.100000 0.050000 
    440 1 -6.091355 0.483181 0.823446 1 0.100000 0.050000 
    441 1 -5.489042 -1.457741 2.400320 1 0.100000 0.050000 
    442 1 -5.190421 -0.974564 3.182120 1 0.100000 0.050000 
    443 1 -5.190421 0.974564 3.182120 1 0.100000 0.050000 
    444 1 -5.489042 1.457741 2.400320 1 0.100000 0.050000 
    445 1 -6.091355 0.483180 -0.823446 1 0.100000 0.050000 
    446 1 -6.091355 -0.483181 -0.823446 1 0.100000 0.050000 
    447 1 -5.489042 1.457741 -2.400320 1 0.100000 0.050000 
    448 1 -5.190421 0.974564 -3.182120 1 0.100000 0.050000 
    449 1 -5.190421 -0.974564 -3.182120 1 0.100000 0.050000 
    450 1 -5.489042 -1.457741 -2.400320 1 0.100000 0.050000 
    451 1 -0.483180 -0.823446 6.091355 1 0.100000 0.050000 
    452 1 0.483181 -0.823446 6.091355 1 0.100000 0.050000 
    453 1 -1.457741 -2.400320 5.489042 1 0.100000 0.050000 
    454 1 -0.974564 -3.182120 5.190421 1 0.100000 0.050000 
    455 1 0.974564 -3.182120 5.190421 1 0.100000 0.050000 
    456 1 1.457741 -2.400320 5.489042 1 0.100000 0.050000 
    457 1 0.483180 0.823446 6.091355 1 0.100000 0.050000 
    458 1 -0.483181 0.823446 6.091355 1 0.100000 0.050000 
    459 1 1.457741 2.400320 5.489042 1 0.100000 0.050000 
    460 1 0.974564 3.182120 5.190421 1 0.100000 0.050000 
    461 1 -0.974564 3.182120 5.190421 1 0.100000 0.050000 
    462 1 -1.457741 2.400320 5.489042 1 0.100000 0.050000 
    463 1 -0.483180 0.823446 -6.091355 1 0.100000 0.050000 
    464 1 0.483181 0.823446 -6.091355 1 0.100000 0.050000 
    465 1 -1.457741 2.400320 -5.489042 1 0.100000 0.050000 
    466 1 -0.974564 3.182120 -5.190421 1 0.100000 0.050000 
    467 1 0.974564 3.182120 -5.190421 1 0.100000 0.050000 
    468 1 1.457741 2.400320 -5.489042 1 0.100000 0.050000 
    469 1 0.483180 -0.823446 -6.091355 1 0.100000 0.050000 
    470 1 -0.483181 -0.823446 -6.091355 1 0.100000 0.050000 
    471 1 1.457741 -2.400320 -5.489042 1 0.100000 0.050000 
    472 1 0.974564 -3.182120 -5.190421 1 0.100000 0.050000 
    473 1 -0.974564 -3.182120 -5.190421 1 0.100000 0.050000 
    474 1 -1.457741 -2.400320 -5.489042 1 0.100000 0.050000 
    475 1 2.790102 2.909235 4.665599 1 0.100000 0.050000 
    476 1 2.306924 3.691035 4.366977 1 0.100000 0.050000 
    477 1 4.366977 2.306924 3.691035 1 0.100000 0.050000 
    478 1 4.665599 2.790102 2.909235 1 0.100000 0.050000 
    479 1 3.691035 4.366977 2.306924 1 0.100000 0.050000 
    480 1 2.909235 4.665599 2.790102 1 0.100000 0.050000 
    481 1 -3.691035 4.366977 2.306924 1 0.100000 0.050000 
    482 1 -2.909235 4.665599 2.790102 1 0.100000 0.050000 
    483 1 -4.665599 2.790102 2.909235 1 0.100000 0.050000 
    484 1 -4.366977 2.306924 3.691035 1 0.100000 0.050000 
    485 1 -2.790102 2.909235 4.665599 1 0.100000 0.050000 
    486 1 -2.306924 3.691035 4.366977 1 0.100000 0.050000 
    487 1 3.691035 4.366977 -2.306924 1 0.100000 0.050000 
    488 1 2.909235 4.665599 -2.790102 1 0.100000 0.050000 
    489 1 4.665599 2.790102 -2.909235 1 0.100000 0.050000 
    490 1 4.366977 2.306924 -3.691035 1 0.100000 0.050000 
    491 1 2.790102 2.909235 -4.665599 1 0.100000 0.050000 
    492 1 2.306924 3.691035 -4.366977 1 0.100000 0.050000 
    493 1 -2.790102 2.909235 -4.665599 1 0.100000 0.050000 
    494 1 -2.306924 3.691035 -4.366977 1 0.100000 0.050000 
    495 1 -4.366977 2.306924 -3.691035 1 0.100000 0.050000 
    496 1 -4.665599 2.790102 -2.909235 1 0.100000 0.050000 
    497 1 -3.691035 4.366977 -2.306924 1 0.100000 0.050000 
    498 1 -2.909235 4.665599 -2.790102 1 0.100000 0.050000 
    499 1 3.691035 -4.366977 2.306924 1 0.100000 0.050000 
    500 1 2.909235 -4.665599 2.790102 1 0.100000 0.050000 